# 

2 atoms
3 atom types

0.0 2.934 xlo xhi
0.0 2.5409185347 ylo yhi
0.0 4.7912019369 zlo zhi
-1.467 0.0 0.0 xy xz yz

Atoms  # atomic

1 2 -1.467e-04 1.6940303871 1.1978004842
2 2 1.4671467 0.8468881476 3.5934014527
