LAMMPS data file via write_data, version 29 Aug 2024, timestep = 12, units = metal

2 atoms
3 atom types

0.0005012468675207101 2.9334987531324797 xlo xhi
0.00043455358970101015 2.5404839811102993 ylo yhi
0.06735798251235924 4.72384395438764 zlo zhi
-1.4664982207360173 0 0 xy xz yz

Masses

1 1
2 1
3 1

Atoms # atomic

1 2 0.0005013657975613036 1.6938001165476133 1.2314794755012668 0 0 0
2 2 1.467000413466423 0.847118418152387 3.5597224613987333 0 0 0

Velocities

1 0 0 0
2 0 0 0
